[Molden Format]
[Title]
 Molden file created by orca_2mkl for BaseName=sp

[Atoms] AU
O    1   8         44.1496247449        43.9807111965        38.3865167498 
C    2   6         43.4968135796        42.8821363129        40.2705696046 
C    3   6         44.0281089294        44.1284812039        42.8428906695 
H    4   1         45.4983390486        43.4469468628        44.1357120898 
H    5   1         42.2375596481        44.0386946461        43.8837163917 
H    6   1         44.3071824188        46.1497532149        42.4767375039 
C    7   6         42.1892935671        40.2977198858        40.3168857150 
H    8   1         40.1948786085        40.7058314911        40.7082983018 
H    9   1         43.0772274627        39.2725790228        41.8847275022 
H   10   1         42.5945162726        39.2393746826        38.5810444021 
O   11   8         35.6913676624        38.2375761515        38.1888749043 
H   12   1         37.1343046371        38.9138823574        37.3330324892 
H   13   1         34.5479229325        39.6329877422        38.3203405815 
O   14   8         48.5665723068        45.4021228866        36.7291424973 
H   15   1         49.5062973596        43.8800880986        36.9979345348 
H   16   1         46.8460279301        44.9304834129        37.0278219331 
O   17   8         40.0192531497        33.9326839258        41.5683289926 
H   18   1         39.9002270484        35.7371572384        41.6087339452 
H   19   1         38.4399341486        33.3597906015        42.2387555802 
O   20   8         42.4277908947        50.0331617173        38.7471264038 
H   21   1         42.0116262403        48.2953569223        38.4664760136 
H   22   1         41.9886898406        50.3301326895        40.4765519453 
O   23   8         48.7168059124        38.2583467550        40.4844743386 
H   24   1         49.4539295146        36.7351468565        41.1235645804 
H   25   1         47.8965602117        38.9995820423        41.9161503596 
[GTO]
  1 0
s   6 1.0 
    27032.3826310000         0.8598581479
     4052.3871392000         1.6055305368
      922.3272271000         2.7458778516
      261.2407098900         4.2987674426
       85.3546413510         5.8797663284
       31.0350352450         6.3163983216
s   2 1.0 
       12.2608607280         2.9812147522
        4.9987076005         0.9419559635
s   1 1.0 
        1.1703108158         0.8019291610
s   1 1.0 
        0.4647474099         0.4011648062
s   1 1.0 
        0.1850453636         0.2010799406
p   4 1.0 
       63.2749548010         3.0572017144
       14.6270493790         3.3844839414
        4.4501223456         2.9474262132
        1.5275799647         1.7118271494
p   1 1.0 
        0.5293511794         0.6436057926
p   1 1.0 
        0.1747842127         0.1610897254
d   1 1.0 
        2.3140000000        12.3767310624
d   1 1.0 
        0.6450000000         1.3234257612
f   1 1.0 
        1.4280000000        12.7097950062

  2 0
s   6 1.0 
    13575.3496820000         0.5435905310
     2035.2333680000         1.0145543947
      463.2256235900         1.7315731970
      131.2001959800         2.6910376290
       42.8530158910         3.6044547126
       15.5841857660         3.7025556986
s   2 1.0 
        6.2067138508         1.8383540830
        2.5764896527         0.5447575605
s   1 1.0 
        0.5769633942         0.4718145038
s   1 1.0 
        0.2297283136         0.2364944676
s   1 1.0 
        0.0951644400         0.1221141848
p   4 1.0 
       34.6972322440         1.3596651507
        7.9582622826         1.4512589486
        2.3780826883         1.2709231419
        0.8143320818         0.8025721189
p   1 1.0 
        0.2888754725         0.3018758868
p   1 1.0 
        0.1005682367         0.0807265016
d   1 1.0 
        1.0970000000         3.3522135855
d   1 1.0 
        0.3180000000         0.3838994974
f   1 1.0 
        0.7610000000         3.0840084332

  3 0
s   6 1.0 
    13575.3496820000         0.5435905310
     2035.2333680000         1.0145543947
      463.2256235900         1.7315731970
      131.2001959800         2.6910376290
       42.8530158910         3.6044547126
       15.5841857660         3.7025556986
s   2 1.0 
        6.2067138508         1.8383540830
        2.5764896527         0.5447575605
s   1 1.0 
        0.5769633942         0.4718145038
s   1 1.0 
        0.2297283136         0.2364944676
s   1 1.0 
        0.0951644400         0.1221141848
p   4 1.0 
       34.6972322440         1.3596651507
        7.9582622826         1.4512589486
        2.3780826883         1.2709231419
        0.8143320818         0.8025721189
p   1 1.0 
        0.2888754725         0.3018758868
p   1 1.0 
        0.1005682367         0.0807265016
d   1 1.0 
        1.0970000000         3.3522135855
d   1 1.0 
        0.3180000000         0.3838994974
f   1 1.0 
        0.7610000000         3.0840084332

  4 0
s   3 1.0 
       34.0613410000         0.2556299169
        5.1235746000         0.4613599649
        1.1646626000         0.6811214941
s   1 1.0 
        0.3272304100         0.3083545312
s   1 1.0 
        0.1030724100         0.1296483265
p   1 1.0 
        0.8000000000         1.0784563492

  5 0
s   3 1.0 
       34.0613410000         0.2556299169
        5.1235746000         0.4613599649
        1.1646626000         0.6811214941
s   1 1.0 
        0.3272304100         0.3083545312
s   1 1.0 
        0.1030724100         0.1296483265
p   1 1.0 
        0.8000000000         1.0784563492

  6 0
s   3 1.0 
       34.0613410000         0.2556299169
        5.1235746000         0.4613599649
        1.1646626000         0.6811214941
s   1 1.0 
        0.3272304100         0.3083545312
s   1 1.0 
        0.1030724100         0.1296483265
p   1 1.0 
        0.8000000000         1.0784563492

  7 0
s   6 1.0 
    13575.3496820000         0.5435905310
     2035.2333680000         1.0145543947
      463.2256235900         1.7315731970
      131.2001959800         2.6910376290
       42.8530158910         3.6044547126
       15.5841857660         3.7025556986
s   2 1.0 
        6.2067138508         1.8383540830
        2.5764896527         0.5447575605
s   1 1.0 
        0.5769633942         0.4718145038
s   1 1.0 
        0.2297283136         0.2364944676
s   1 1.0 
        0.0951644400         0.1221141848
p   4 1.0 
       34.6972322440         1.3596651507
        7.9582622826         1.4512589486
        2.3780826883         1.2709231419
        0.8143320818         0.8025721189
p   1 1.0 
        0.2888754725         0.3018758868
p   1 1.0 
        0.1005682367         0.0807265016
d   1 1.0 
        1.0970000000         3.3522135855
d   1 1.0 
        0.3180000000         0.3838994974
f   1 1.0 
        0.7610000000         3.0840084332

  8 0
s   3 1.0 
       34.0613410000         0.2556299169
        5.1235746000         0.4613599649
        1.1646626000         0.6811214941
s   1 1.0 
        0.3272304100         0.3083545312
s   1 1.0 
        0.1030724100         0.1296483265
p   1 1.0 
        0.8000000000         1.0784563492

  9 0
s   3 1.0 
       34.0613410000         0.2556299169
        5.1235746000         0.4613599649
        1.1646626000         0.6811214941
s   1 1.0 
        0.3272304100         0.3083545312
s   1 1.0 
        0.1030724100         0.1296483265
p   1 1.0 
        0.8000000000         1.0784563492

 10 0
s   3 1.0 
       34.0613410000         0.2556299169
        5.1235746000         0.4613599649
        1.1646626000         0.6811214941
s   1 1.0 
        0.3272304100         0.3083545312
s   1 1.0 
        0.1030724100         0.1296483265
p   1 1.0 
        0.8000000000         1.0784563492

 11 0
s   6 1.0 
    27032.3826310000         0.8598581479
     4052.3871392000         1.6055305368
      922.3272271000         2.7458778516
      261.2407098900         4.2987674426
       85.3546413510         5.8797663284
       31.0350352450         6.3163983216
s   2 1.0 
       12.2608607280         2.9812147522
        4.9987076005         0.9419559635
s   1 1.0 
        1.1703108158         0.8019291610
s   1 1.0 
        0.4647474099         0.4011648062
s   1 1.0 
        0.1850453636         0.2010799406
p   4 1.0 
       63.2749548010         3.0572017144
       14.6270493790         3.3844839414
        4.4501223456         2.9474262132
        1.5275799647         1.7118271494
p   1 1.0 
        0.5293511794         0.6436057926
p   1 1.0 
        0.1747842127         0.1610897254
d   1 1.0 
        2.3140000000        12.3767310624
d   1 1.0 
        0.6450000000         1.3234257612
f   1 1.0 
        1.4280000000        12.7097950062

 12 0
s   3 1.0 
       34.0613410000         0.2556299169
        5.1235746000         0.4613599649
        1.1646626000         0.6811214941
s   1 1.0 
        0.3272304100         0.3083545312
s   1 1.0 
        0.1030724100         0.1296483265
p   1 1.0 
        0.8000000000         1.0784563492

 13 0
s   3 1.0 
       34.0613410000         0.2556299169
        5.1235746000         0.4613599649
        1.1646626000         0.6811214941
s   1 1.0 
        0.3272304100         0.3083545312
s   1 1.0 
        0.1030724100         0.1296483265
p   1 1.0 
        0.8000000000         1.0784563492

 14 0
s   6 1.0 
    27032.3826310000         0.8598581479
     4052.3871392000         1.6055305368
      922.3272271000         2.7458778516
      261.2407098900         4.2987674426
       85.3546413510         5.8797663284
       31.0350352450         6.3163983216
s   2 1.0 
       12.2608607280         2.9812147522
        4.9987076005         0.9419559635
s   1 1.0 
        1.1703108158         0.8019291610
s   1 1.0 
        0.4647474099         0.4011648062
s   1 1.0 
        0.1850453636         0.2010799406
p   4 1.0 
       63.2749548010         3.0572017144
       14.6270493790         3.3844839414
        4.4501223456         2.9474262132
        1.5275799647         1.7118271494
p   1 1.0 
        0.5293511794         0.6436057926
p   1 1.0 
        0.1747842127         0.1610897254
d   1 1.0 
        2.3140000000        12.3767310624
d   1 1.0 
        0.6450000000         1.3234257612
f   1 1.0 
        1.4280000000        12.7097950062

 15 0
s   3 1.0 
       34.0613410000         0.2556299169
        5.1235746000         0.4613599649
        1.1646626000         0.6811214941
s   1 1.0 
        0.3272304100         0.3083545312
s   1 1.0 
        0.1030724100         0.1296483265
p   1 1.0 
        0.8000000000         1.0784563492

 16 0
s   3 1.0 
       34.0613410000         0.2556299169
        5.1235746000         0.4613599649
        1.1646626000         0.6811214941
s   1 1.0 
        0.3272304100         0.3083545312
s   1 1.0 
        0.1030724100         0.1296483265
p   1 1.0 
        0.8000000000         1.0784563492

 17 0
s   6 1.0 
    27032.3826310000         0.8598581479
     4052.3871392000         1.6055305368
      922.3272271000         2.7458778516
      261.2407098900         4.2987674426
       85.3546413510         5.8797663284
       31.0350352450         6.3163983216
s   2 1.0 
       12.2608607280         2.9812147522
        4.9987076005         0.9419559635
s   1 1.0 
        1.1703108158         0.8019291610
s   1 1.0 
        0.4647474099         0.4011648062
s   1 1.0 
        0.1850453636         0.2010799406
p   4 1.0 
       63.2749548010         3.0572017144
       14.6270493790         3.3844839414
        4.4501223456         2.9474262132
        1.5275799647         1.7118271494
p   1 1.0 
        0.5293511794         0.6436057926
p   1 1.0 
        0.1747842127         0.1610897254
d   1 1.0 
        2.3140000000        12.3767310624
d   1 1.0 
        0.6450000000         1.3234257612
f   1 1.0 
        1.4280000000        12.7097950062

 18 0
s   3 1.0 
       34.0613410000         0.2556299169
        5.1235746000         0.4613599649
        1.1646626000         0.6811214941
s   1 1.0 
        0.3272304100         0.3083545312
s   1 1.0 
        0.1030724100         0.1296483265
p   1 1.0 
        0.8000000000         1.0784563492

 19 0
s   3 1.0 
       34.0613410000         0.2556299169
        5.1235746000         0.4613599649
        1.1646626000         0.6811214941
s   1 1.0 
        0.3272304100         0.3083545312
s   1 1.0 
        0.1030724100         0.1296483265
p   1 1.0 
        0.8000000000         1.0784563492

 20 0
s   6 1.0 
    27032.3826310000         0.8598581479
     4052.3871392000         1.6055305368
      922.3272271000         2.7458778516
      261.2407098900         4.2987674426
       85.3546413510         5.8797663284
       31.0350352450         6.3163983216
s   2 1.0 
       12.2608607280         2.9812147522
        4.9987076005         0.9419559635
s   1 1.0 
        1.1703108158         0.8019291610
s   1 1.0 
        0.4647474099         0.4011648062
s   1 1.0 
        0.1850453636         0.2010799406
p   4 1.0 
       63.2749548010         3.0572017144
       14.6270493790         3.3844839414
        4.4501223456         2.9474262132
        1.5275799647         1.7118271494
p   1 1.0 
        0.5293511794         0.6436057926
p   1 1.0 
        0.1747842127         0.1610897254
d   1 1.0 
        2.3140000000        12.3767310624
d   1 1.0 
        0.6450000000         1.3234257612
f   1 1.0 
        1.4280000000        12.7097950062

 21 0
s   3 1.0 
       34.0613410000         0.2556299169
        5.1235746000         0.4613599649
        1.1646626000         0.6811214941
s   1 1.0 
        0.3272304100         0.3083545312
s   1 1.0 
        0.1030724100         0.1296483265
p   1 1.0 
        0.8000000000         1.0784563492

 22 0
s   3 1.0 
       34.0613410000         0.2556299169
        5.1235746000         0.4613599649
        1.1646626000         0.6811214941
s   1 1.0 
        0.3272304100         0.3083545312
s   1 1.0 
        0.1030724100         0.1296483265
p   1 1.0 
        0.8000000000         1.0784563492

 23 0
s   6 1.0 
    27032.3826310000         0.8598581479
     4052.3871392000         1.6055305368
      922.3272271000         2.7458778516
      261.2407098900         4.2987674426
       85.3546413510         5.8797663284
       31.0350352450         6.3163983216
s   2 1.0 
       12.2608607280         2.9812147522
        4.9987076005         0.9419559635
s   1 1.0 
        1.1703108158         0.8019291610
s   1 1.0 
        0.4647474099         0.4011648062
s   1 1.0 
        0.1850453636         0.2010799406
p   4 1.0 
       63.2749548010         3.0572017144
       14.6270493790         3.3844839414
        4.4501223456         2.9474262132
        1.5275799647         1.7118271494
p   1 1.0 
        0.5293511794         0.6436057926
p   1 1.0 
        0.1747842127         0.1610897254
d   1 1.0 
        2.3140000000        12.3767310624
d   1 1.0 
        0.6450000000         1.3234257612
f   1 1.0 
        1.4280000000        12.7097950062

 24 0
s   3 1.0 
       34.0613410000         0.2556299169
        5.1235746000         0.4613599649
        1.1646626000         0.6811214941
s   1 1.0 
        0.3272304100         0.3083545312
s   1 1.0 
        0.1030724100         0.1296483265
p   1 1.0 
        0.8000000000         1.0784563492

 25 0
s   3 1.0 
       34.0613410000         0.2556299169
        5.1235746000         0.4613599649
        1.1646626000         0.6811214941
s   1 1.0 
        0.3272304100         0.3083545312
s   1 1.0 
        0.1030724100         0.1296483265
p   1 1.0 
        0.8000000000         1.0784563492

[5D]
[7F]
[9G]
[MO]
 Sym=     1a
 Ene= -1.91341543799305E+01
 Spin= Alpha
 Occup= 2.000000
  1      -0.435076569303
  2      -0.639457315077
  3      -0.036943141594
  4       0.032458193108
  5      -0.012815200446
  6       0.000527366433
  7       0.000992944120
  8      -0.001733633583
  9      -0.001760145948
 10      -0.003160487766
 11       0.005651499853
 12      -0.001087792823
 13      -0.000247469269
 14      -0.000232710337
 15      -0.000162452597
 16       0.000171436172
 17       0.000250240409
 18       0.000009714022
 19      -0.000048848140
 20       0.000890279350
 21      -0.000814024375
 22      -0.001210715845
 23      -0.000136049514
 24       0.000320673205
 25       0.000037953794
 26      -0.000101830561
 27      -0.000146367248
 28      -0.000042941377
 29       0.000098753601
 30      -0.000029384928
 31       0.000002686365
 32      -0.000046624299
 33       0.000274529682
 34      -0.000734211064
 35      -0.005450928222
 36       0.002650302554
 37      -0.000178470318
 38      -0.000323023037
 39       0.000589727447
 40      -0.002865038058
 41      -0.004798877106
 42       0.007970107108
 43       0.003469857791
 44       0.005359528605
 45      -0.003665756865
 46      -0.000278996974
 47       0.000185462409
 48       0.000243436079
 49       0.000063351949
 50      -0.000198232427
 51      -0.002356398901
 52       0.002165561063
 53       0.004351063546
 54       0.000282425679
 55      -0.000283547070
 56       0.000162279791
 57       0.000013711202
 58       0.000094020545
 59      -0.000105962879
 60       0.000105447382
 61      -0.000180068882
 62      -0.000038136080
 63      -0.000020588142
 64       0.000099463555
 65      -0.000378563179
 66      -0.001383897523
 67      -0.002295685748
 68       0.000003742822
 69       0.000023020053
 70       0.000192104519
 71       0.000262001206
 72       0.001036488848
 73       0.000673635276
 74      -0.000861642691
 75      -0.000611321907
 76       0.001000150463
 77      -0.000079852326
 78      -0.000017802725
 79      -0.000052186033
 80       0.000048353421
 81      -0.000077754458
 82      -0.000547993865
 83      -0.000276502083
 84      -0.000346595696
 85      -0.001052052667
 86       0.000701996348
 87       0.000051387541
 88       0.000050205187
 89       0.000113413188
 90       0.000028517142
 91      -0.000025136168
 92      -0.000082457084
 93       0.000023119700
 94       0.000013028188
 95       0.001053721632
 96       0.000123024765
 97      -0.000059975877
 98       0.000061024241
 99      -0.000215584030
100      -0.000002855617
101       0.000874599592
102      -0.000393905232
103       0.000071151017
104       0.000093860149
105      -0.000212764115
106      -0.000123341326
107      -0.001266442712
108       0.000905431975
109      -0.000043369184
110       0.000232079090
111       0.000031420792
112      -0.000014517488
113       0.000069052508
114      -0.000044775475
115      -0.002097431512
116       0.006243015358
117      -0.000106065100
118      -0.000114294216
119       0.000018061530
120       0.000153781146
121      -0.001402713389
122       0.000157754837
123       0.000964385858
124       0.001329071860
125       0.001118651535
126      -0.000016989457
127      -0.000010043182
128       0.000015924754
129       0.000082588275
130      -0.000118109186
131       0.001089293785
132       0.000333978763
133       0.000805121185
134      -0.000322065585
135       0.000124481030
136      -0.000060810296
137       0.000056700195
138       0.000110140484
139      -0.000067524331
140       0.000112620671
141      -0.000008117586
142       0.000049373080
143       0.000107675158
144       0.001176288205
145      -0.000682607684
146       0.000222691421
147       0.000023868856
148      -0.000106182068
149      -0.000020012812
150       0.000009305320
151      -0.000886116136
152       0.000101814185
153      -0.000016572681
154      -0.000134666790
155      -0.000064601626
156      -0.000944487795
157      -0.000051243947
158       0.000105699327
159      -0.000153601697
160      -0.000082057227
161       0.000017880446
162       0.000022022535
163       0.000034354416
164      -0.000092178756
165       0.000046691960
166       0.000010511537
167      -0.000000233776
168       0.000002341034
169      -0.000056166991
170      -0.000005477922
171      -0.000003814046
172       0.000074902130
173       0.000002978763
174       0.000035328500
175       0.000000543133
176      -0.000002462770
177      -0.000001026282
178      -0.000001380883
179      -0.000001582140
180       0.000001438817
181       0.000012265731
182       0.000005451744
183      -0.000002256155
184      -0.000000714815
185      -0.000001657535
186       0.000001435574
187       0.000000852744
188       0.000001066224
189       0.000000179917
190       0.000000350996
191       0.000002229017
192      -0.000002403999
193       0.000043814754
194       0.000016551844
195      -0.000008305413
196      -0.000008464717
197       0.000019472255
198       0.000001863930
199      -0.000010171893
200       0.000036780269
201      -0.000004422096
202      -0.000002211327
203      -0.000001963656
204       0.000007242355
205       0.000005277025
206       0.000236410084
207      -0.000726734334
208      -0.001549737297
209      -0.000077569464
210      -0.000026350208
211      -0.000004146043
212       0.000944447654
213       0.000283074469
214      -0.000107742158
215       0.000602099044
216       0.000161381574
217      -0.000186671320
218      -0.000015398478
219       0.000005407704
220      -0.000001754247
221       0.000019932033
222       0.000006901294
223       0.000257052023
224       0.000103669664
225       0.000035506179
226      -0.000393138295
227      -0.000209075754
228       0.000016530468
229      -0.000065823384
230      -0.000015601464
231      -0.000022642043
232      -0.000012482038
233      -0.000066151171
234      -0.000063873603
235      -0.000036607635
236       0.000188978490
237      -0.000340181210
238       0.000017211654
239       0.000001459587
240      -0.000009690499
241       0.000232071591
242       0.002077756121
243       0.001059839857
244       0.000756833119
245       0.000233063915
246      -0.000160329046
247       0.000012946434
248       0.000015689869
249       0.000025795336
250      -0.000069934139
251       0.000058420987
252       0.000000343921
253       0.000004793176
254      -0.000005144654
255      -0.000000517657
256      -0.000027954395
257       0.000018435198
258       0.000015363670
259       0.000035118242
260      -0.000028120236
261      -0.000000690393
262      -0.000000201093
263       0.000000210270
264       0.000000382195
265      -0.000000225410
266       0.000004502146
267       0.000001027461
268       0.000001846536
269       0.000003169020
270       0.000002254280
271      -0.000001139547
272       0.000000035113
273       0.000001001647
274      -0.000001644646
275      -0.000000570652
276       0.000001218517
277      -0.000000465329
278      -0.000004452608
279       0.000042109293
280      -0.000059769113
281      -0.000005083609
282      -0.000009807393
283      -0.000011712767
284      -0.000000102598
285       0.000005688976
286       0.000020570042
287       0.000001421125
288      -0.000000321104
289       0.000001310785
290       0.000029703966
291       0.000036999006
292       0.000069674338
293      -0.000172568829
294      -0.000061302127
295      -0.000001120522
296      -0.000016186769
297      -0.000017064038
298       0.000040484011
299       0.000114817050
300       0.000054757587
301      -0.000058740416
302       0.000063611132
303      -0.000261665267
304       0.000006409171
305      -0.000002045134
306      -0.000004277154
307      -0.000014700380
308      -0.000010225067
309      -0.000015558134
310       0.000011757865
311      -0.000015625501
312       0.000087642096
313       0.000022061643
314      -0.000010910989
315       0.000004733259
316      -0.000006608376
317      -0.000007163456
318       0.000003888519
319      -0.000002998843
320       0.000014869618
321      -0.000003345128
322       0.000244827931
323      -0.000528774175
324       0.000073463465
325       0.000096199835
326      -0.000020516067
327      -0.000011346684
328       0.000240377574
329       0.000012760455
330       0.000012226489
331      -0.000008600802
332      -0.000030603832
333      -0.000072034178
334      -0.000086767499
335      -0.000141614869
336       0.000361663452
337      -0.000234394292
338       0.000020870827
339      -0.000026465620
340       0.000024571217
341      -0.000043229597
342       0.000033239258
343      -0.000095385503
344       0.000410117437
345      -0.000537370166
346       0.000087708374
347       0.000002785348
348      -0.000010016923
349       0.000016245382
350       0.000008978491
351      -0.000010609720
352      -0.000033275950
353       0.000064159471
354      -0.000093826301
355      -0.000050812078
356       0.000011056019
357      -0.000000697225
358       0.000001079262
359       0.000000140288
360      -0.000004022393
361       0.000001656914
362       0.000014729974
363       0.000004197919
364       0.000019359375
365      -0.000410068918
366      -0.000156504161
367       0.000026782201
368      -0.000072189725
369       0.000034420907
370      -0.000000256479
371       0.000319332686
372       0.000068800416
373      -0.000003810916
374       0.000011412699
375      -0.000057154391
 Sym=     1a
 Ene= -1.91228193042169E+01
 Spin= Alpha
 Occup= 2.000000
  1      -0.000068042608
  2      -0.000118346411
  3       0.000133612285
  4      -0.000521265736
  5       0.001328331738
  6       0.000008869617
  7      -0.000004303443
  8      -0.000004167850
  9      -0.000040992743
 10       0.000022335175
 11       0.000011491431
 12       0.000027704924
 13      -0.000023181665
 14       0.000443423708
 15      -0.000008763360
 16       0.000003222935
 17       0.000003592358
 18       0.000000547797
 19      -0.000004668413
 20       0.000047236693
 21      -0.000018296909
 22      -0.000014477449
 23      -0.000000035392
 24       0.000020504764
 25       0.000005485407
 26      -0.000003924889
 27      -0.000001080730
 28       0.000001205560
 29       0.000002772212
 30      -0.000002796272
 31      -0.000000531102
 32      -0.000002731289
 33       0.000012836735
 34       0.000058109417
 35      -0.000830685723
 36       0.000349124129
 37      -0.000027493182
 38       0.000020119831
 39       0.000013509996
 40      -0.000020354179
 41      -0.000273850065
 42      -0.000285085674
 43      -0.001026834625
 44      -0.002390508367
 45      -0.000496853081
 46      -0.000003258576
 47       0.000002159091
 48       0.000002378647
 49       0.000006700036
 50       0.000022750013
 51      -0.000093046592
 52      -0.000126782713
 53      -0.000150031352
 54       0.000022748500
 55      -0.000189543146
 56      -0.000024375845
 57      -0.000030058002
 58      -0.000020046239
 59      -0.000013307328
 60      -0.000019882206
 61       0.000010399278
 62       0.000004893199
 63      -0.000000503574
 64       0.000002690057
 65      -0.000125970729
 66       0.000444534317
 67       0.001640889689
 68      -0.000010254133
 69       0.000013728622
 70       0.000023966302
 71       0.000140433805
 72      -0.000219280090
 73      -0.000306453214
 74      -0.000330333765
 75      -0.000470950425
 76      -0.001382456631
 77       0.000000232434
 78       0.000016648823
 79      -0.000027294163
 80       0.000014130157
 81       0.000016646134
 82       0.000225220318
 83       0.000110810562
 84       0.000214703074
 85      -0.000036341810
 86      -0.000090559328
 87      -0.000024685149
 88       0.000018135011
 89      -0.000030943800
 90       0.000016652383
 91      -0.000020650820
 92      -0.000017920406
 93       0.000000314525
 94       0.000039854754
 95      -0.000489743764
 96       0.001089242211
 97       0.000042926048
 98      -0.000025005619
 99       0.000025656153
100       0.000018023350
101       0.000060088088
102       0.000006715242
103       0.000024371002
104      -0.000021097006
105      -0.000008656149
106       0.000008813765
107       0.000078200579
108       0.000139502105
109       0.000012255702
110      -0.000021586440
111      -0.000018358555
112      -0.000006382705
113       0.000031550009
114      -0.000356181744
115       0.001436868264
116      -0.006286331200
117      -0.000034586567
118       0.000014827756
119      -0.000007988686
120       0.000120056254
121       0.000082854186
122       0.000157453715
123      -0.001381405787
124      -0.000853167337
125      -0.000530732552
126       0.000014834161
127       0.000026037753
128      -0.000017994307
129      -0.000019643712
130       0.000032066402
131      -0.000095752435
132      -0.000068830141
133      -0.000058913787
134       0.000067838500
135      -0.000137331218
136       0.000007063453
137       0.000005102894
138      -0.000014486630
139      -0.000002825760
140      -0.000020146332
141       0.000008001818
142       0.000008191321
143      -0.000038137941
144      -0.000077672229
145       0.000321922638
146      -0.000031059559
147      -0.000012489953
148       0.000014448482
149      -0.000062871600
150       0.000115025669
151       0.001801336367
152       0.000082402559
153      -0.000008582246
154       0.000031630170
155      -0.000071730167
156       0.000337052124
157       0.000481183831
158       0.000011125552
159       0.000011763377
160       0.000020882553
161       0.000407348410
162       0.000597750653
163       0.000041957872
164      -0.000050711993
165       0.000052662949
166       0.000000410292
167       0.000000973269
168      -0.000004554544
169      -0.000003822700
170      -0.000003067858
171       0.000019632455
172       0.000003070420
173      -0.000012472864
174      -0.000034726965
175      -0.000000849385
176       0.000000770722
177       0.000000782249
178       0.000000570459
179       0.000001059274
180       0.000002690340
181       0.000000575767
182      -0.000000801714
183      -0.000001503952
184      -0.000004308788
185      -0.000000030010
186      -0.000000839035
187      -0.000000373973
188       0.000000127991
189       0.000001111840
190       0.000000064151
191      -0.000000002166
192       0.000000040914
193       0.000027514046
194      -0.000115562311
195      -0.000009498303
196       0.000000548182